 Gaussian 16, Revision B.01,

 ---------------------------------------
 #P PBEPBE/6-31+G* pop=NBORead scf=tight
 ---------------------------------------

 ----------------------------------------------------------
 Single Point computation for reaction coordinate: -3.53557
 ----------------------------------------------------------
 Symbolic Z-matrix:
 Charge = -1 Multiplicity = 1

 SCF Done:  E(RPBE-PBE) =  -239.378989385     A.U. after   13 cycles
 Normal termination of Gaussian 16 at Wed Jan 23 22:24:26 2019.

 ---------------------------------------
 #P PBEPBE/6-31+G* pop=NBORead scf=tight
 ---------------------------------------

 ----------------------------------------------------------
 Single Point computation for reaction coordinate: -3.18142
 ----------------------------------------------------------
 Symbolic Z-matrix:
 Charge = -1 Multiplicity = 1

 SCF Done:  E(RPBE-PBE) =  -239.378763969     A.U. after   13 cycles
 Normal termination of Gaussian 16 at Wed Jan 23 22:24:29 2019.

 ---------------------------------------
 #P PBEPBE/6-31+G* pop=NBORead scf=tight
 ---------------------------------------

 ----------------------------------------------------------
 Single Point computation for reaction coordinate: -2.82723
 ----------------------------------------------------------
 Symbolic Z-matrix:
 Charge = -1 Multiplicity = 1

 SCF Done:  E(RPBE-PBE) =  -239.378341873     A.U. after   14 cycles
 Normal termination of Gaussian 16 at Wed Jan 23 22:24:32 2019.

 ---------------------------------------
 #P PBEPBE/6-31+G* pop=NBORead scf=tight
 ---------------------------------------

 ----------------------------------------------------------
 Single Point computation for reaction coordinate: -2.47337
 ----------------------------------------------------------
 Symbolic Z-matrix:
 Charge = -1 Multiplicity = 1

 SCF Done:  E(RPBE-PBE) =  -239.377687031     A.U. after   13 cycles
 Normal termination of Gaussian 16 at Wed Jan 23 22:24:35 2019.

 ---------------------------------------
 #P PBEPBE/6-31+G* pop=NBORead scf=tight
 ---------------------------------------

 ----------------------------------------------------------
 Single Point computation for reaction coordinate: -2.12208
 ----------------------------------------------------------
 Symbolic Z-matrix:
 Charge = -1 Multiplicity = 1

 SCF Done:  E(RPBE-PBE) =  -239.376751424     A.U. after   13 cycles

 ---------------------------------------
 #P PBEPBE/6-31+G* pop=NBORead scf=tight
 ---------------------------------------

 ----------------------------------------------------------
 Single Point computation for reaction coordinate: -1.77014
 ----------------------------------------------------------
 Symbolic Z-matrix:
 Charge = -1 Multiplicity = 1

 SCF Done:  E(RPBE-PBE) =  -239.375378151     A.U. after   13 cycles
 SCF Done:  E(RPBE-PBE) =  -239.373603092     A.U. after   13 cycles
 SCF Done:  E(RPBE-PBE) =  -239.371746615     A.U. after   13 cycles
 SCF Done:  E(RPBE-PBE) =  -239.370174061     A.U. after   13 cycles
 SCF Done:  E(RPBE-PBE) =  -239.369139451     A.U. after   12 cycles
 SCF Done:  E(RPBE-PBE) =  -239.369139451     A.U. after   12 cycles
 SCF Done:  E(RPBE-PBE) =  -239.370174092     A.U. after   13 cycles
 SCF Done:  E(RPBE-PBE) =  -239.371746643     A.U. after   13 cycles
 SCF Done:  E(RPBE-PBE) =  -239.373603123     A.U. after   13 cycles
 SCF Done:  E(RPBE-PBE) =  -239.375378182     A.U. after   13 cycles
 SCF Done:  E(RPBE-PBE) =  -239.376751439     A.U. after   13 cycles
 SCF Done:  E(RPBE-PBE) =  -239.377687045     A.U. after   13 cycles
 Normal termination of Gaussian 16 at Wed Jan 23 22:25:17 2019.
 SCF Done:  E(RPBE-PBE) =  -239.378341888     A.U. after   14 cycles
 Normal termination of Gaussian 16 at Wed Jan 23 22:25:20 2019.
 SCF Done:  E(RPBE-PBE) =  -239.378763975     A.U. after   13 cycles
 Normal termination of Gaussian 16 at Wed Jan 23 22:25:23 2019.
 Gaussian 16:  ES64L-G16RevB.01 20-Dec-2017

                         Standard orientation:
 ---------------------------------------------------------------------
 Center     Atomic      Atomic             Coordinates (Angstroms)
 Number     Number       Type             X           Y           Z
 ---------------------------------------------------------------------
      1          6           0        0.000000    0.372389    0.000000
      2          1           0        1.043341    0.041833    0.000000
      3          1           0       -0.521641    0.041735    0.903544
      4          1           0       -0.521641    0.041735   -0.903544
      5          9           0       -0.000105    1.850803    0.000000
      6          9           0        0.000099   -2.112985   -0.000000
 ---------------------------------------------------------------------

 SCF Done:  E(RPBE-PBE) =  -239.378989385     A.U. after   13 cycles

 The electronic state is 1-A'.
 Alpha  occ. eigenvalues --  -24.08925 -23.88857  -9.77909  -0.88966  -0.64737
 Alpha  occ. eigenvalues --   -0.44170  -0.23897  -0.22927  -0.22927  -0.11847
 Alpha  occ. eigenvalues --   -0.11847   0.02480   0.02758   0.02758
 Alpha virt. eigenvalues --    0.14320   0.18961   0.18970   0.18970   0.26826
 Alpha virt. eigenvalues --    0.33713   0.33713   0.34204   0.38531   0.38531
 Alpha virt. eigenvalues --    0.41219   0.43295   0.47819   0.47819   0.51143

 Mulliken charges:
               1
     1  C   -0.400479
     2  H    0.222011
     3  H    0.222014
     4  H    0.222014
     5  F   -0.383810
     6  F   -0.881751
 Sum of Mulliken charges =  -1.00000

 Dipole moment (field-independent basis, Debye):
    X=             -0.0002    Y=              5.8885    Z=             -0.0000  Tot=              5.8885
 Quadrupole moment (field-independent basis, Debye-Ang):
   XX=            -19.9698   YY=            -47.3671   ZZ=            -19.9697
   XY=              0.0014   XZ=              0.0000   YZ=             -0.0000

 Summary of Natural Population Analysis:

                                       Natural Population
                Natural  -----------------------------------------------
    Atom  No    Charge         Core      Valence    Rydberg      Total
 -----------------------------------------------------------------------
      C    1   -0.27694      1.99945     4.25874    0.01876     6.27694
      H    2    0.22295      0.00000     0.77572    0.00133     0.77705
      H    3    0.22295      0.00000     0.77571    0.00133     0.77705
      H    4    0.22295      0.00000     0.77571    0.00133     0.77705
      F    5   -0.46746      1.99997     7.45955    0.00794     9.46746
      F    6   -0.92445      2.00000     7.92402    0.00043     9.92445
 =======================================================================
   * Total *   -1.00000      5.99941    21.96945    0.03114    28.00000

 Normal termination of Gaussian 16 at Wed Jan 23 22:25:26 2019.
